LAMMPS Al2O3_Al interface data file

191 atoms

2  atom types

0.0 9.8933868408 xlo xhi
0.0 8.5679243336 ylo yhi
0.0 27.6935997009 zlo zhi

4.9466934204 0 0 xy xz yz

Atoms

1 1 11.4913 2.77323 2.36404 
2 1 4.2195 4.28093 2.36413 
3 1 4.07619 1.5135 2.36411 
4 1 5.75896 1.41998 4.61284 
5 1 3.29703 2.87049 4.61282 
6 1 8.25752 8.56132 4.61285 
7 1 4.95677 8.55478 6.91147 
8 1 2.47198 1.40936 6.91829 
9 1 4.95947 2.82978 6.9418 
10 1 1.65833 2.80553 9.25395 
11 1 4.14552 4.25504 9.22493 
12 1 8.18119 5.68933 11.4948 
13 1 5.80046 4.25675 11.5438 
14 1 3.37619 2.87049 11.5094 
15 1 4.11554 1.41045 9.25117 
16 1 4.9518 2.9626 14.0949 
17 1 9.89337 4.25e-06 0.386238 
18 1 2.47323 1.42782 26.4475 
19 1 4.94666 2.85594 27.2589 
20 1 4.95246 8.56087 15.7456 
21 1 9.89339 3.7785e-05 22.2071 
22 1 14.84 8.56791 24.8348 
23 1 2.47332 1.42798 22.7397 
24 1 2.47087 1.42534 20.057 
25 1 2.46979 1.43473 16.3116 
26 1 4.93717 2.88142 17.8894 
27 1 4.94669 2.85596 24.4007 
28 1 4.94669 2.85597 20.6012 
29 1 6.54456 2.77321 2.36402 
30 1 9.16612 4.28095 2.36428 
31 1 9.02289 1.51351 2.36424 
32 1 10.7056 1.42001 4.61284 
33 1 8.24367 2.87046 4.61287 
34 1 13.2042 8.56125 4.61283 
35 1 9.89367 8.54829 6.90961 
36 1 7.42349 1.40852 6.91871 
37 1 9.89442 2.83582 6.91761 
38 1 6.59602 2.81542 9.26745 
39 1 9.05828 1.40516 9.24904 
40 1 10.7881 4.19042 11.5307 
41 1 13.2066 8.45694 11.5126 
42 1 5.7443 1.3831 11.4893 
43 1 9.88134 2.85406 14.0615 
44 1 9.89342 8.56764 0.386332 
45 1 7.42017 1.42797 26.4474 
46 1 9.89385 2.85602 27.2596 
47 1 4.94358 0 18.4266 
48 1 4.94668 0 22.2071 
49 1 9.88704 8.56723 15.7109 
50 1 4.94666 5.595e-06 24.8349 
51 1 7.42004 1.42799 22.7397 
52 1 7.41677 1.42883 20.0569 
53 1 7.42039 1.42475 16.3138 
54 1 9.88904 2.85595 17.9173 
55 1 9.89336 2.85599 24.4008 
56 1 9.89338 2.85598 20.6011 
57 1 13.9645 7.05713 2.36407 
58 1 6.69279 8.56499 2.36413 
59 1 6.54953 5.79746 2.36422 
60 1 8.23228 5.70399 4.61286 
61 1 5.77037 7.15444 4.61281 
62 1 5.78419 4.2773 4.61283 
63 1 2.46645 4.2644 6.91045 
64 1 4.94671 5.68943 6.92293 
65 1 7.41968 7.13107 6.93618 
66 1 4.11502 7.09788 9.22528 
67 1 6.59058 5.69843 9.22297 
68 1 9.875 5.7165 13.6381 
69 1 7.42318 4.25232 6.91393 
70 1 3.30516 5.65218 11.5288 
71 1 5.75141 7.10805 11.5413 
72 1 7.31043 7.10225 14.0922 
73 1 12.3667 4.28444 0.386373 
74 1 4.9466 5.71206 26.4475 
75 1 7.41995 7.13972 27.2594 
76 1 2.48072 4.28999 18.4198 
77 1 2.47336 4.28398 22.2072 
78 1 12.3579 4.29781 15.7474 
79 1 12.3667 4.28397 24.8349 
80 1 4.94672 5.71195 22.7397 
81 1 4.94495 5.7116 20.049 
82 1 4.93865 5.7118 15.9834 
83 1 7.3967 7.12271 17.8891 
84 1 7.42 7.13996 24.4008 
85 1 7.41999 7.13993 20.6012 
86 1 9.01785 7.05713 2.36428 
87 1 11.6396 8.56497 2.36415 
88 1 11.4962 5.79753 2.36436 
89 1 13.179 5.70395 4.61288 
90 1 10.7171 7.15447 4.61291 
91 1 10.7308 4.27731 4.61289 
92 1 9.89385 5.68888 6.92187 
93 1 12.3587 7.11303 6.93778 
94 1 9.06516 7.09529 9.25171 
95 1 11.5642 8.53933 9.2486 
96 1 11.539 5.68621 9.2586 
97 1 8.25728 8.49069 11.5095 
98 1 10.7455 7.12211 11.4873 
99 1 12.4435 7.07087 14.09 
100 1 7.42032 4.28402 0.386265 
101 1 9.89333 5.71191 26.4474 
102 1 12.3666 7.14015 27.2594 
103 1 7.40707 4.28937 18.4192 
104 1 7.42006 4.28395 22.2071 
105 1 7.39963 4.27781 15.7454 
106 1 7.42005 4.28397 24.8349 
107 1 9.89339 5.71192 22.7397 
108 1 9.89357 5.71178 20.0577 
109 1 9.88195 5.70909 16.3102 
110 1 12.3852 7.13177 17.8899 
111 1 12.3667 7.13993 24.4008 
112 1 12.3667 7.13994 20.6012 
113 1 10.6579 1.35518 11.5128 
114 1 4.94398 8.55542 18.4194 
115 1 6.61097 8.53557 9.26468 
116 1 2.48147 1.43262 13.6391 
117 1 7.40845 1.40838 13.6417 
118 1 9.0913 4.25884 9.25176 
119 1 8.27013 2.88404 11.5187 
120 2 1.51756 0.0267437 17.1036 
121 2 8.38433 8.56436 23.5462 
122 2 4.1954 1.30796 17.0591 
123 2 3.23099 2.97883 23.5462 
124 2 11.5977 2.97812 17.0704 
125 2 10.6448 1.30873 23.5462 
126 2 3.97931 1.42729 21.4075 
127 2 0.959377 1.44092 14.8979 
128 2 1.72096 2.73259 21.4074 
129 2 3.22656 0.120809 14.8727 
130 2 1.71972 0.124126 21.4074 
131 2 3.21604 2.74743 14.8845 
132 2 6.47064 2.85254 25.6709 
133 2 3.43426 2.85481 19.2372 
134 2 4.18766 4.17742 25.6709 
135 2 5.69517 1.54794 19.2407 
136 2 4.18174 1.53788 25.6709 
137 2 5.69433 4.16017 19.2405 
138 2 11.3941 8.5606 17.0581 
139 2 13.331 8.56435 23.5462 
140 2 9.14019 1.31237 17.071 
141 2 8.17767 2.97885 23.5462 
142 2 6.6774 2.95114 17.1051 
143 2 5.69813 1.30869 23.5462 
144 2 8.92601 1.4273 21.4074 
145 2 5.8961 1.42292 14.8674 
146 2 6.66765 2.73256 21.4075 
147 2 8.17781 0.115896 14.8829 
148 2 6.66642 0.124104 21.4075 
149 2 8.1734 2.7233 14.9044 
150 2 11.4174 2.85256 25.6709 
151 2 8.38564 2.85944 19.2438 
152 2 9.13428 4.1775 25.6708 
153 2 10.6402 1.54911 19.2438 
154 2 9.12845 1.53781 25.6708 
155 2 10.648 4.15752 19.244 
156 2 3.9596 4.27502 17.0526 
157 2 5.91095 4.28036 23.5462 
158 2 6.67722 5.58019 17.0513 
159 2 5.70438 7.26281 23.5462 
160 2 14.0803 7.27866 17.0518 
161 2 13.1182 5.59264 23.5463 
162 2 6.45265 5.71126 21.4075 
163 2 3.33052 5.6928 14.9479 
164 2 4.1943 7.01653 21.4075 
165 2 5.75633 4.32705 14.9515 
166 2 4.19308 4.40808 21.4075 
167 2 5.72745 7.11241 14.9499 
168 2 8.94402 7.13658 25.6708 
169 2 5.91237 7.13654 19.2399 
170 2 6.66093 8.46138 25.6708 
171 2 8.17375 5.83251 19.2378 
172 2 6.65505 5.82178 25.6709 
173 2 8.17495 8.44328 19.2417 
174 2 8.92601 4.27551 17.0708 
175 2 10.8577 4.28035 23.5462 
176 2 11.5764 5.58794 17.1044 
177 2 10.651 7.26279 23.5462 
178 2 9.12797 7.26679 17.0567 
179 2 8.17148 5.59266 23.5462 
180 2 11.3994 5.71127 21.4075 
181 2 8.36542 5.70364 14.8768 
182 2 9.14096 7.01652 21.4075 
183 2 10.6242 4.40322 14.9033 
184 2 9.13978 4.40807 21.4074 
185 2 10.6386 7.0252 14.8698 
186 2 13.8907 7.13657 25.6708 
187 2 10.8559 7.14319 19.2408 
188 2 11.6077 8.46146 25.6708 
189 2 13.1191 5.83818 19.2406 
190 2 11.6018 5.82179 25.6708 
191 2 13.1177 8.44698 19.2378 
